TITLE = "2D-PIC CPU PCG SOLUTION"
VARIABLES = "X","Y",
"Cond 0_Solution",
"Cond 1_Solution",
ZONE I = 11, J = 11, F=BLOCK,
	0.000e+00	4.000e-03	8.000e-03	1.200e-02	1.600e-02	2.000e-02	
	2.400e-02	2.800e-02	3.200e-02	3.600e-02	4.000e-02	
	0.000e+00	4.000e-03	8.000e-03	1.200e-02	1.600e-02	2.000e-02	
	2.400e-02	2.800e-02	3.200e-02	3.600e-02	4.000e-02	
	0.000e+00	4.000e-03	8.000e-03	1.200e-02	1.600e-02	2.000e-02	
	2.400e-02	2.800e-02	3.200e-02	3.600e-02	4.000e-02	
	0.000e+00	4.000e-03	8.000e-03	1.200e-02	1.600e-02	2.000e-02	
	2.400e-02	2.800e-02	3.200e-02	3.600e-02	4.000e-02	
	0.000e+00	4.000e-03	8.000e-03	1.200e-02	1.600e-02	2.000e-02	
	2.400e-02	2.800e-02	3.200e-02	3.600e-02	4.000e-02	
	0.000e+00	4.000e-03	8.000e-03	1.200e-02	1.600e-02	2.000e-02	
	2.400e-02	2.800e-02	3.200e-02	3.600e-02	4.000e-02	
	0.000e+00	4.000e-03	8.000e-03	1.200e-02	1.600e-02	2.000e-02	
	2.400e-02	2.800e-02	3.200e-02	3.600e-02	4.000e-02	
	0.000e+00	4.000e-03	8.000e-03	1.200e-02	1.600e-02	2.000e-02	
	2.400e-02	2.800e-02	3.200e-02	3.600e-02	4.000e-02	
	0.000e+00	4.000e-03	8.000e-03	1.200e-02	1.600e-02	2.000e-02	
	2.400e-02	2.800e-02	3.200e-02	3.600e-02	4.000e-02	
	0.000e+00	4.000e-03	8.000e-03	1.200e-02	1.600e-02	2.000e-02	
	2.400e-02	2.800e-02	3.200e-02	3.600e-02	4.000e-02	
	0.000e+00	4.000e-03	8.000e-03	1.200e-02	1.600e-02	2.000e-02	
	2.400e-02	2.800e-02	3.200e-02	3.600e-02	4.000e-02	
	0.000e+00	0.000e+00	0.000e+00	0.000e+00	0.000e+00	0.000e+00	
	0.000e+00	0.000e+00	0.000e+00	0.000e+00	0.000e+00	
	2.000e-03	2.000e-03	2.000e-03	2.000e-03	2.000e-03	2.000e-03	
	2.000e-03	2.000e-03	2.000e-03	2.000e-03	2.000e-03	
	4.000e-03	4.000e-03	4.000e-03	4.000e-03	4.000e-03	4.000e-03	
	4.000e-03	4.000e-03	4.000e-03	4.000e-03	4.000e-03	
	6.000e-03	6.000e-03	6.000e-03	6.000e-03	6.000e-03	6.000e-03	
	6.000e-03	6.000e-03	6.000e-03	6.000e-03	6.000e-03	
	8.000e-03	8.000e-03	8.000e-03	8.000e-03	8.000e-03	8.000e-03	
	8.000e-03	8.000e-03	8.000e-03	8.000e-03	8.000e-03	
	1.000e-02	1.000e-02	1.000e-02	1.000e-02	1.000e-02	1.000e-02	
	1.000e-02	1.000e-02	1.000e-02	1.000e-02	1.000e-02	
	1.200e-02	1.200e-02	1.200e-02	1.200e-02	1.200e-02	1.200e-02	
	1.200e-02	1.200e-02	1.200e-02	1.200e-02	1.200e-02	
	1.400e-02	1.400e-02	1.400e-02	1.400e-02	1.400e-02	1.400e-02	
	1.400e-02	1.400e-02	1.400e-02	1.400e-02	1.400e-02	
	1.600e-02	1.600e-02	1.600e-02	1.600e-02	1.600e-02	1.600e-02	
	1.600e-02	1.600e-02	1.600e-02	1.600e-02	1.600e-02	
	1.800e-02	1.800e-02	1.800e-02	1.800e-02	1.800e-02	1.800e-02	
	1.800e-02	1.800e-02	1.800e-02	1.800e-02	1.800e-02	
	2.000e-02	2.000e-02	2.000e-02	2.000e-02	2.000e-02	2.000e-02	
	2.000e-02	2.000e-02	2.000e-02	2.000e-02	2.000e-02	
	0	0	0	0	0	0	
	0	0	0	0	0	
	0	0	0	0	0	0	
	0	0.00367209	0.00382899	0.00234843	0	
	0	0	0	0	0	0	
	0	0.00823289	0.00806089	0.00490797	0	
	0	0	0	0	0	0	
	0	0.0542276	0.0169569	0.00790331	0	
	0.250019	0.250011	0.249756	0.247393	0.224577	0	
	0	0.123077	0.0278021	0.0106101	0	
	0.500021	0.500039	0.500014	0.499906	0.499579	0.497433	
	0.474389	0.246507	0.0720888	0.0249258	0	
	0.750005	0.750035	0.750259	0.752522	0.775065	1	
	1	0.356551	0.0845603	0.0336841	0	
	1	1	1	1	1	1	
	1	0.373646	0.0814198	0.0326241	0	
	1	1	1	1	1	1	
	1	0.307191	0.078321	0.0275209	0	
	1	1	1	1	1	1	
	1	0.228461	0.0558305	0.0165966	0	
	1	1	1	1	1	1	
	1	0	0	0	0	
	1	1	1	1	1	1	
	1	0	0	0	0	
	1	1	1	1	1	1	
	1	0.225566	0.0534978	0.0155841	0	
	1	1	1	1	1	1	
	1	0.300537	0.0734571	0.0256026	0	
	1	1	1	1	1	1	
	1	0.368891	0.0734318	0.0300546	0	
	0.750004	0.750036	0.750261	0.752525	0.775061	1	
	1	0.353317	0.0762722	0.0311686	0	
	0.500019	0.500042	0.500022	0.499901	0.499581	0.497419	
	0.474263	0.24526	0.0704653	0.0244992	0	
	0.250017	0.250012	0.249759	0.247395	0.224574	0	
	0	0.123624	0.0324469	0.0124257	0	
	0	0	0	0	0	0	
	0	0.0556821	0.0200871	0.00930661	0	
	0	0	0	0	0	0	
	0	0.0105548	0.00979479	0.00581964	0	
	0	0	0	0	0	0	
	0	0.00469344	0.00466909	0.00279445	0	
	0	0	0	0	0	0	
	0	0	0	0	0	
GEOMETRY
F=POINT
CS=GRID
X=0.00,Y=0.00,Z=0.00
C=BLACK
S=GLOBAL
L=SOLID
PL=4
LT=0.1
CLIPPING=CLIPTOVIEWPORT
DRAWORDER=AFTERDATA
MFC=""
T=RECTANGLE 0.04 0.02
GEOMETRY
F=POINT
CS=GRID
X=0,Y=0.014,Z=0.00
C=BLACK
S=GLOBAL
L=SOLID
PL=4
LT=0.1
CLIPPING=CLIPTOVIEWPORT
DRAWORDER=AFTERDATA
MFC=""
T=RECTANGLE 0.024 0.006
GEOMETRY
F=POINT
CS=GRID
X=0.02,Y=0.012,Z=0.00
C=BLACK
S=GLOBAL
L=SOLID
PL=4
LT=0.1
CLIPPING=CLIPTOVIEWPORT
DRAWORDER=AFTERDATA
MFC=""
T=RECTANGLE 0.004 0.002
GEOMETRY
F=POINT
CS=GRID
X=0,Y=0,Z=0.00
C=BLACK
S=GLOBAL
L=SOLID
PL=4
LT=0.1
CLIPPING=CLIPTOVIEWPORT
DRAWORDER=AFTERDATA
MFC=""
T=RECTANGLE 0.024 0.006
GEOMETRY
F=POINT
CS=GRID
X=0.02,Y=0.006,Z=0.00
C=BLACK
S=GLOBAL
L=SOLID
PL=4
LT=0.1
CLIPPING=CLIPTOVIEWPORT
DRAWORDER=AFTERDATA
MFC=""
T=RECTANGLE 0.004 0.002
GEOMETRY
F=POINT
CS=GRID
X=0.024,Y=0,Z=0.00
C=BLACK
S=GLOBAL
L=SOLID
PL=4
LT=0.1
CLIPPING=CLIPTOVIEWPORT
DRAWORDER=AFTERDATA
MFC=""
T=RECTANGLE 0.016 0.004
GEOMETRY
F=POINT
CS=GRID
X=0.032,Y=0.004,Z=0.00
C=BLACK
S=GLOBAL
L=SOLID
PL=4
LT=0.1
CLIPPING=CLIPTOVIEWPORT
DRAWORDER=AFTERDATA
MFC=""
T=RECTANGLE 0.008 0.004
GEOMETRY
F=POINT
CS=GRID
X=0.024,Y=0.016,Z=0.00
C=BLACK
S=GLOBAL
L=SOLID
PL=4
LT=0.1
CLIPPING=CLIPTOVIEWPORT
DRAWORDER=AFTERDATA
MFC=""
T=RECTANGLE 0.016 0.004
GEOMETRY
F=POINT
CS=GRID
X=0.032,Y=0.012,Z=0.00
C=BLACK
S=GLOBAL
L=SOLID
PL=4
LT=0.1
CLIPPING=CLIPTOVIEWPORT
DRAWORDER=AFTERDATA
MFC=""
T=RECTANGLE 0.008 0.004
