TITLE = "2D-PIC CPU PCG SOLUTION"
VARIABLES = "X","Y",
"Cond 0_Solution",
"Cond 1_Solution",
ZONE I = 11, J = 11, F=BLOCK,
	0.000e+00	4.000e-03	8.000e-03	1.200e-02	1.600e-02	2.000e-02	
	2.400e-02	2.800e-02	3.200e-02	3.600e-02	4.000e-02	
	0.000e+00	4.000e-03	8.000e-03	1.200e-02	1.600e-02	2.000e-02	
	2.400e-02	2.800e-02	3.200e-02	3.600e-02	4.000e-02	
	0.000e+00	4.000e-03	8.000e-03	1.200e-02	1.600e-02	2.000e-02	
	2.400e-02	2.800e-02	3.200e-02	3.600e-02	4.000e-02	
	0.000e+00	4.000e-03	8.000e-03	1.200e-02	1.600e-02	2.000e-02	
	2.400e-02	2.800e-02	3.200e-02	3.600e-02	4.000e-02	
	0.000e+00	4.000e-03	8.000e-03	1.200e-02	1.600e-02	2.000e-02	
	2.400e-02	2.800e-02	3.200e-02	3.600e-02	4.000e-02	
	0.000e+00	4.000e-03	8.000e-03	1.200e-02	1.600e-02	2.000e-02	
	2.400e-02	2.800e-02	3.200e-02	3.600e-02	4.000e-02	
	0.000e+00	4.000e-03	8.000e-03	1.200e-02	1.600e-02	2.000e-02	
	2.400e-02	2.800e-02	3.200e-02	3.600e-02	4.000e-02	
	0.000e+00	4.000e-03	8.000e-03	1.200e-02	1.600e-02	2.000e-02	
	2.400e-02	2.800e-02	3.200e-02	3.600e-02	4.000e-02	
	0.000e+00	4.000e-03	8.000e-03	1.200e-02	1.600e-02	2.000e-02	
	2.400e-02	2.800e-02	3.200e-02	3.600e-02	4.000e-02	
	0.000e+00	4.000e-03	8.000e-03	1.200e-02	1.600e-02	2.000e-02	
	2.400e-02	2.800e-02	3.200e-02	3.600e-02	4.000e-02	
	0.000e+00	4.000e-03	8.000e-03	1.200e-02	1.600e-02	2.000e-02	
	2.400e-02	2.800e-02	3.200e-02	3.600e-02	4.000e-02	
	0.000e+00	0.000e+00	0.000e+00	0.000e+00	0.000e+00	0.000e+00	
	0.000e+00	0.000e+00	0.000e+00	0.000e+00	0.000e+00	
	2.000e-03	2.000e-03	2.000e-03	2.000e-03	2.000e-03	2.000e-03	
	2.000e-03	2.000e-03	2.000e-03	2.000e-03	2.000e-03	
	4.000e-03	4.000e-03	4.000e-03	4.000e-03	4.000e-03	4.000e-03	
	4.000e-03	4.000e-03	4.000e-03	4.000e-03	4.000e-03	
	6.000e-03	6.000e-03	6.000e-03	6.000e-03	6.000e-03	6.000e-03	
	6.000e-03	6.000e-03	6.000e-03	6.000e-03	6.000e-03	
	8.000e-03	8.000e-03	8.000e-03	8.000e-03	8.000e-03	8.000e-03	
	8.000e-03	8.000e-03	8.000e-03	8.000e-03	8.000e-03	
	1.000e-02	1.000e-02	1.000e-02	1.000e-02	1.000e-02	1.000e-02	
	1.000e-02	1.000e-02	1.000e-02	1.000e-02	1.000e-02	
	1.200e-02	1.200e-02	1.200e-02	1.200e-02	1.200e-02	1.200e-02	
	1.200e-02	1.200e-02	1.200e-02	1.200e-02	1.200e-02	
	1.400e-02	1.400e-02	1.400e-02	1.400e-02	1.400e-02	1.400e-02	
	1.400e-02	1.400e-02	1.400e-02	1.400e-02	1.400e-02	
	1.600e-02	1.600e-02	1.600e-02	1.600e-02	1.600e-02	1.600e-02	
	1.600e-02	1.600e-02	1.600e-02	1.600e-02	1.600e-02	
	1.800e-02	1.800e-02	1.800e-02	1.800e-02	1.800e-02	1.800e-02	
	1.800e-02	1.800e-02	1.800e-02	1.800e-02	1.800e-02	
	2.000e-02	2.000e-02	2.000e-02	2.000e-02	2.000e-02	2.000e-02	
	2.000e-02	2.000e-02	2.000e-02	2.000e-02	2.000e-02	
	0	0	0	0	0	0	
	0	0	0	0	0	
	0	0	0	0	0	0	
	0	0.00367908	0.00382159	0.00234899	0	
	0	0	0	0	0	0	
	0	0.00823766	0.00806743	0.00491087	0	
	0	0	0	0	0	0	
	0	0.054224	0.0169545	0.00790214	0	
	0.250022	0.250003	0.249743	0.247394	0.224576	0	
	0	0.123076	0.0277998	0.0106104	0	
	0.500027	0.500029	0.499994	0.499915	0.499591	0.497417	
	0.474389	0.246499	0.0720866	0.0249292	0	
	0.750016	0.750038	0.750255	0.752514	0.775073	1	
	1	0.356529	0.0845619	0.0336701	0	
	1	1	1	1	1	1	
	1	0.373634	0.0814198	0.0326224	0	
	1	1	1	1	1	1	
	1	0.307192	0.0783159	0.0275141	0	
	1	1	1	1	1	1	
	1	0.228458	0.0558361	0.0165879	0	
	1	1	1	1	1	1	
	1	0	0	0	0	
	1	1	1	1	1	1	
	1	0	0	0	0	
	1	1	1	1	1	1	
	1	0.225563	0.0534971	0.0155929	0	
	1	1	1	1	1	1	
	1	0.300537	0.0734529	0.0255987	0	
	1	1	1	1	1	1	
	1	0.368883	0.0734299	0.0300469	0	
	0.750012	0.750038	0.750258	0.752519	0.775066	1	
	1	0.353304	0.0762641	0.0311722	0	
	0.500024	0.500035	0.500005	0.49991	0.499586	0.49741	
	0.474263	0.245256	0.0704603	0.0244944	0	
	0.250021	0.250007	0.24975	0.247394	0.224574	0	
	0	0.123625	0.0324447	0.0124251	0	
	0	0	0	0	0	0	
	0	0.0556828	0.0200864	0.0093058	0	
	0	0	0	0	0	0	
	0	0.0105578	0.00979537	0.00581781	0	
	0	0	0	0	0	0	
	0	0.00468113	0.00466414	0.00279175	0	
	0	0	0	0	0	0	
	0	0	0	0	0	
GEOMETRY
F=POINT
CS=GRID
X=0.00,Y=0.00,Z=0.00
C=BLACK
S=GLOBAL
L=SOLID
PL=4
LT=0.1
CLIPPING=CLIPTOVIEWPORT
DRAWORDER=AFTERDATA
MFC=""
T=RECTANGLE 0.04 0.02
GEOMETRY
F=POINT
CS=GRID
X=0,Y=0.014,Z=0.00
C=BLACK
S=GLOBAL
L=SOLID
PL=4
LT=0.1
CLIPPING=CLIPTOVIEWPORT
DRAWORDER=AFTERDATA
MFC=""
T=RECTANGLE 0.024 0.006
GEOMETRY
F=POINT
CS=GRID
X=0.02,Y=0.012,Z=0.00
C=BLACK
S=GLOBAL
L=SOLID
PL=4
LT=0.1
CLIPPING=CLIPTOVIEWPORT
DRAWORDER=AFTERDATA
MFC=""
T=RECTANGLE 0.004 0.002
GEOMETRY
F=POINT
CS=GRID
X=0,Y=0,Z=0.00
C=BLACK
S=GLOBAL
L=SOLID
PL=4
LT=0.1
CLIPPING=CLIPTOVIEWPORT
DRAWORDER=AFTERDATA
MFC=""
T=RECTANGLE 0.024 0.006
GEOMETRY
F=POINT
CS=GRID
X=0.02,Y=0.006,Z=0.00
C=BLACK
S=GLOBAL
L=SOLID
PL=4
LT=0.1
CLIPPING=CLIPTOVIEWPORT
DRAWORDER=AFTERDATA
MFC=""
T=RECTANGLE 0.004 0.002
GEOMETRY
F=POINT
CS=GRID
X=0.024,Y=0,Z=0.00
C=BLACK
S=GLOBAL
L=SOLID
PL=4
LT=0.1
CLIPPING=CLIPTOVIEWPORT
DRAWORDER=AFTERDATA
MFC=""
T=RECTANGLE 0.016 0.004
GEOMETRY
F=POINT
CS=GRID
X=0.032,Y=0.004,Z=0.00
C=BLACK
S=GLOBAL
L=SOLID
PL=4
LT=0.1
CLIPPING=CLIPTOVIEWPORT
DRAWORDER=AFTERDATA
MFC=""
T=RECTANGLE 0.008 0.004
GEOMETRY
F=POINT
CS=GRID
X=0.024,Y=0.016,Z=0.00
C=BLACK
S=GLOBAL
L=SOLID
PL=4
LT=0.1
CLIPPING=CLIPTOVIEWPORT
DRAWORDER=AFTERDATA
MFC=""
T=RECTANGLE 0.016 0.004
GEOMETRY
F=POINT
CS=GRID
X=0.032,Y=0.012,Z=0.00
C=BLACK
S=GLOBAL
L=SOLID
PL=4
LT=0.1
CLIPPING=CLIPTOVIEWPORT
DRAWORDER=AFTERDATA
MFC=""
T=RECTANGLE 0.008 0.004
