TITLE = "2D-PIC Gsize data set"
VARIABLES = "X","Y",
"Boundary",
"CondID",
"Face",
"Area",
"Temp",
"BackDen1",
"BackVel1",
"BackDen2",
"BackVel2",
"Lap_Pot",
"Pois_Pot",
"Ex",
"Ey",
ZONE I = 11, J = 11, F=BLOCK,
	0.000e+00	4.000e-03	8.000e-03	1.200e-02	1.600e-02	2.000e-02	
	2.400e-02	2.800e-02	3.200e-02	3.600e-02	4.000e-02	
	0.000e+00	4.000e-03	8.000e-03	1.200e-02	1.600e-02	2.000e-02	
	2.400e-02	2.800e-02	3.200e-02	3.600e-02	4.000e-02	
	0.000e+00	4.000e-03	8.000e-03	1.200e-02	1.600e-02	2.000e-02	
	2.400e-02	2.800e-02	3.200e-02	3.600e-02	4.000e-02	
	0.000e+00	4.000e-03	8.000e-03	1.200e-02	1.600e-02	2.000e-02	
	2.400e-02	2.800e-02	3.200e-02	3.600e-02	4.000e-02	
	0.000e+00	4.000e-03	8.000e-03	1.200e-02	1.600e-02	2.000e-02	
	2.400e-02	2.800e-02	3.200e-02	3.600e-02	4.000e-02	
	0.000e+00	4.000e-03	8.000e-03	1.200e-02	1.600e-02	2.000e-02	
	2.400e-02	2.800e-02	3.200e-02	3.600e-02	4.000e-02	
	0.000e+00	4.000e-03	8.000e-03	1.200e-02	1.600e-02	2.000e-02	
	2.400e-02	2.800e-02	3.200e-02	3.600e-02	4.000e-02	
	0.000e+00	4.000e-03	8.000e-03	1.200e-02	1.600e-02	2.000e-02	
	2.400e-02	2.800e-02	3.200e-02	3.600e-02	4.000e-02	
	0.000e+00	4.000e-03	8.000e-03	1.200e-02	1.600e-02	2.000e-02	
	2.400e-02	2.800e-02	3.200e-02	3.600e-02	4.000e-02	
	0.000e+00	4.000e-03	8.000e-03	1.200e-02	1.600e-02	2.000e-02	
	2.400e-02	2.800e-02	3.200e-02	3.600e-02	4.000e-02	
	0.000e+00	4.000e-03	8.000e-03	1.200e-02	1.600e-02	2.000e-02	
	2.400e-02	2.800e-02	3.200e-02	3.600e-02	4.000e-02	
	0.000e+00	0.000e+00	0.000e+00	0.000e+00	0.000e+00	0.000e+00	
	0.000e+00	0.000e+00	0.000e+00	0.000e+00	0.000e+00	
	2.000e-03	2.000e-03	2.000e-03	2.000e-03	2.000e-03	2.000e-03	
	2.000e-03	2.000e-03	2.000e-03	2.000e-03	2.000e-03	
	4.000e-03	4.000e-03	4.000e-03	4.000e-03	4.000e-03	4.000e-03	
	4.000e-03	4.000e-03	4.000e-03	4.000e-03	4.000e-03	
	6.000e-03	6.000e-03	6.000e-03	6.000e-03	6.000e-03	6.000e-03	
	6.000e-03	6.000e-03	6.000e-03	6.000e-03	6.000e-03	
	8.000e-03	8.000e-03	8.000e-03	8.000e-03	8.000e-03	8.000e-03	
	8.000e-03	8.000e-03	8.000e-03	8.000e-03	8.000e-03	
	1.000e-02	1.000e-02	1.000e-02	1.000e-02	1.000e-02	1.000e-02	
	1.000e-02	1.000e-02	1.000e-02	1.000e-02	1.000e-02	
	1.200e-02	1.200e-02	1.200e-02	1.200e-02	1.200e-02	1.200e-02	
	1.200e-02	1.200e-02	1.200e-02	1.200e-02	1.200e-02	
	1.400e-02	1.400e-02	1.400e-02	1.400e-02	1.400e-02	1.400e-02	
	1.400e-02	1.400e-02	1.400e-02	1.400e-02	1.400e-02	
	1.600e-02	1.600e-02	1.600e-02	1.600e-02	1.600e-02	1.600e-02	
	1.600e-02	1.600e-02	1.600e-02	1.600e-02	1.600e-02	
	1.800e-02	1.800e-02	1.800e-02	1.800e-02	1.800e-02	1.800e-02	
	1.800e-02	1.800e-02	1.800e-02	1.800e-02	1.800e-02	
	2.000e-02	2.000e-02	2.000e-02	2.000e-02	2.000e-02	2.000e-02	
	2.000e-02	2.000e-02	2.000e-02	2.000e-02	2.000e-02	
	1	1	1	1	1	1	
	1	1	1	1	1	
	2	3	3	3	3	3	
	3	4	4	4	1	
	2	3	3	3	3	3	
	3	4	4	4	1	
	2	3	3	3	3	3	
	3	0	4	4	1	
	2	0	0	0	0	3	
	3	0	4	4	1	
	2	0	0	0	0	0	
	0	0	0	0	1	
	2	0	0	0	0	3	
	3	0	4	4	1	
	2	3	3	3	3	3	
	3	0	4	4	1	
	2	3	3	3	3	3	
	3	4	4	4	1	
	2	3	3	3	3	3	
	3	4	4	4	1	
	1	1	1	1	1	1	
	1	1	1	1	1	
	2	2	2	2	2	2	
	2	0	0	0	0	
	2	2	2	2	2	2	
	2	0	0	0	0	
	2	2	2	2	2	2	
	2	0	0	0	0	
	2	2	2	2	2	2	
	2	0	0	0	0	
	0	0	0	0	0	2	
	2	0	0	0	0	
	0	0	0	0	0	0	
	0	0	0	0	0	
	0	0	0	0	0	1	
	1	0	0	0	0	
	1	1	1	1	1	1	
	1	0	0	0	0	
	1	1	1	1	1	1	
	1	0	0	0	0	
	1	1	1	1	1	1	
	1	0	0	0	0	
	1	1	1	1	1	1	
	1	0	0	0	0	
	8	8	8	8	8	8	
	1	2	2	2	4	
	8	8	8	8	8	8	
	1	8	8	8	0	
	8	8	8	8	8	8	
	1	2	8	8	0	
	2	2	2	2	2	8	
	1	8	0	8	0	
	8	8	8	8	8	4	
	5	8	4	2	0	
	8	8	8	8	8	8	
	8	8	8	8	0	
	8	8	8	8	8	6	
	7	8	6	3	0	
	3	3	3	3	3	8	
	1	8	0	8	0	
	8	8	8	8	8	8	
	1	3	8	8	0	
	8	8	8	8	8	8	
	1	8	8	8	0	
	8	8	8	8	8	8	
	1	3	3	3	8	
	2.000e-03	2.000e-03	2.000e-03	2.000e-03	2.000e-03	2.000e-03	
	2.000e-03	4.000e-03	4.000e-03	4.000e-03	3.000e-03	
	2.000e-03	2.000e-03	2.000e-03	2.000e-03	2.000e-03	2.000e-03	
	2.000e-03	2.000e-03	2.000e-03	2.000e-03	2.000e-03	
	2.000e-03	2.000e-03	2.000e-03	2.000e-03	2.000e-03	2.000e-03	
	2.000e-03	4.000e-03	2.000e-03	2.000e-03	2.000e-03	
	4.000e-03	4.000e-03	4.000e-03	4.000e-03	4.000e-03	2.000e-03	
	2.000e-03	2.000e-03	2.000e-03	2.000e-03	2.000e-03	
	2.000e-03	2.000e-03	2.000e-03	2.000e-03	2.000e-03	3.000e-03	
	3.000e-03	2.000e-03	3.000e-03	4.000e-03	2.000e-03	
	2.000e-03	2.000e-03	2.000e-03	2.000e-03	2.000e-03	2.000e-03	
	2.000e-03	2.000e-03	2.000e-03	2.000e-03	2.000e-03	
	2.000e-03	2.000e-03	2.000e-03	2.000e-03	2.000e-03	3.000e-03	
	3.000e-03	2.000e-03	3.000e-03	4.000e-03	2.000e-03	
	4.000e-03	4.000e-03	4.000e-03	4.000e-03	4.000e-03	2.000e-03	
	2.000e-03	2.000e-03	2.000e-03	2.000e-03	2.000e-03	
	2.000e-03	2.000e-03	2.000e-03	2.000e-03	2.000e-03	2.000e-03	
	2.000e-03	4.000e-03	2.000e-03	2.000e-03	2.000e-03	
	2.000e-03	2.000e-03	2.000e-03	2.000e-03	2.000e-03	2.000e-03	
	2.000e-03	2.000e-03	2.000e-03	2.000e-03	2.000e-03	
	2.000e-03	2.000e-03	2.000e-03	2.000e-03	2.000e-03	2.000e-03	
	2.000e-03	4.000e-03	4.000e-03	4.000e-03	2.000e-03	
	4.730e+02	4.730e+02	4.730e+02	4.730e+02	4.730e+02	4.730e+02	
	4.730e+02	4.730e+02	4.730e+02	4.730e+02	4.730e+02	
	4.730e+02	8.730e+02	8.730e+02	8.730e+02	8.730e+02	8.730e+02	
	8.730e+02	5.632e+02	4.944e+02	4.792e+02	4.730e+02	
	4.730e+02	8.730e+02	8.730e+02	8.730e+02	8.730e+02	8.730e+02	
	8.730e+02	5.932e+02	5.024e+02	4.832e+02	4.730e+02	
	4.730e+02	8.730e+02	8.730e+02	8.730e+02	8.730e+02	8.730e+02	
	8.730e+02	6.205e+02	5.024e+02	4.850e+02	4.730e+02	
	5.618e+02	7.378e+02	7.660e+02	7.724e+02	7.827e+02	8.730e+02	
	8.730e+02	6.143e+02	5.035e+02	4.855e+02	4.730e+02	
	5.627e+02	6.395e+02	6.644e+02	6.709e+02	6.723e+02	6.719e+02	
	6.627e+02	5.711e+02	5.012e+02	4.828e+02	4.730e+02	
	5.251e+02	5.543e+02	5.674e+02	5.705e+02	5.625e+02	4.730e+02	
	4.730e+02	5.224e+02	4.860e+02	4.780e+02	4.730e+02	
	4.730e+02	4.730e+02	4.730e+02	4.730e+02	4.730e+02	4.730e+02	
	4.730e+02	4.953e+02	4.810e+02	4.767e+02	4.730e+02	
	4.730e+02	4.730e+02	4.730e+02	4.730e+02	4.730e+02	4.730e+02	
	4.730e+02	4.772e+02	4.769e+02	4.753e+02	4.730e+02	
	4.730e+02	4.730e+02	4.730e+02	4.730e+02	4.730e+02	4.730e+02	
	4.730e+02	4.749e+02	4.749e+02	4.741e+02	4.730e+02	
	4.730e+02	4.730e+02	4.730e+02	4.730e+02	4.730e+02	4.730e+02	
	4.730e+02	4.730e+02	4.730e+02	4.730e+02	4.730e+02	
	2.042e+20	2.042e+20	2.042e+20	2.042e+20	2.042e+20	2.042e+20	
	2.042e+20	2.042e+20	2.042e+20	2.042e+20	2.042e+20	
	2.042e+20	1.107e+20	1.107e+20	1.107e+20	1.107e+20	1.107e+20	
	1.107e+20	1.715e+20	1.954e+20	2.016e+20	2.042e+20	
	2.042e+20	1.107e+20	1.107e+20	1.107e+20	1.107e+20	1.107e+20	
	1.107e+20	1.629e+20	1.923e+20	1.999e+20	2.042e+20	
	2.042e+20	1.107e+20	1.107e+20	1.107e+20	1.107e+20	1.107e+20	
	1.107e+20	1.557e+20	1.923e+20	1.992e+20	2.042e+20	
	1.720e+20	1.309e+20	1.261e+20	1.251e+20	1.234e+20	1.107e+20	
	1.107e+20	1.573e+20	1.919e+20	1.990e+20	2.042e+20	
	1.717e+20	1.511e+20	1.454e+20	1.440e+20	1.437e+20	1.438e+20	
	1.458e+20	1.692e+20	1.928e+20	2.001e+20	2.042e+20	
	1.840e+20	1.743e+20	1.703e+20	1.693e+20	1.718e+20	2.042e+20	
	2.042e+20	1.849e+20	1.988e+20	2.021e+20	2.042e+20	
	2.042e+20	2.042e+20	2.042e+20	2.042e+20	2.042e+20	2.042e+20	
	2.042e+20	1.951e+20	2.008e+20	2.027e+20	2.042e+20	
	2.042e+20	2.042e+20	2.042e+20	2.042e+20	2.042e+20	2.042e+20	
	2.042e+20	2.024e+20	2.026e+20	2.032e+20	2.042e+20	
	2.042e+20	2.042e+20	2.042e+20	2.042e+20	2.042e+20	2.042e+20	
	2.042e+20	2.034e+20	2.034e+20	2.038e+20	2.042e+20	
	2.042e+20	2.042e+20	2.042e+20	2.042e+20	2.042e+20	2.042e+20	
	2.042e+20	2.042e+20	2.042e+20	2.042e+20	2.042e+20	
	3.137e+02	3.137e+02	3.137e+02	3.137e+02	3.137e+02	3.137e+02	
	3.137e+02	3.137e+02	3.137e+02	3.137e+02	3.137e+02	
	3.137e+02	4.262e+02	4.262e+02	4.262e+02	4.262e+02	4.262e+02	
	4.262e+02	3.423e+02	3.207e+02	3.157e+02	3.137e+02	
	3.137e+02	4.262e+02	4.262e+02	4.262e+02	4.262e+02	4.262e+02	
	4.262e+02	3.513e+02	3.233e+02	3.171e+02	3.137e+02	
	3.137e+02	4.262e+02	4.262e+02	4.262e+02	4.262e+02	4.262e+02	
	4.262e+02	3.593e+02	3.233e+02	3.176e+02	3.137e+02	
	3.419e+02	3.918e+02	3.992e+02	4.008e+02	4.035e+02	4.262e+02	
	4.262e+02	3.575e+02	3.236e+02	3.178e+02	3.137e+02	
	3.421e+02	3.647e+02	3.718e+02	3.736e+02	3.740e+02	3.739e+02	
	3.713e+02	3.447e+02	3.229e+02	3.169e+02	3.137e+02	
	3.305e+02	3.396e+02	3.436e+02	3.445e+02	3.421e+02	3.137e+02	
	3.137e+02	3.297e+02	3.180e+02	3.153e+02	3.137e+02	
	3.137e+02	3.137e+02	3.137e+02	3.137e+02	3.137e+02	3.137e+02	
	3.137e+02	3.210e+02	3.163e+02	3.149e+02	3.137e+02	
	3.137e+02	3.137e+02	3.137e+02	3.137e+02	3.137e+02	3.137e+02	
	3.137e+02	3.151e+02	3.150e+02	3.145e+02	3.137e+02	
	3.137e+02	3.137e+02	3.137e+02	3.137e+02	3.137e+02	3.137e+02	
	3.137e+02	3.143e+02	3.143e+02	3.141e+02	3.137e+02	
	3.137e+02	3.137e+02	3.137e+02	3.137e+02	3.137e+02	3.137e+02	
	3.137e+02	3.137e+02	3.137e+02	3.137e+02	3.137e+02	
	0.000e+00	0.000e+00	0.000e+00	0.000e+00	0.000e+00	0.000e+00	
	0.000e+00	0.000e+00	0.000e+00	0.000e+00	0.000e+00	
	0.000e+00	0.000e+00	0.000e+00	0.000e+00	0.000e+00	0.000e+00	
	0.000e+00	0.000e+00	0.000e+00	0.000e+00	0.000e+00	
	0.000e+00	0.000e+00	0.000e+00	0.000e+00	0.000e+00	0.000e+00	
	0.000e+00	0.000e+00	0.000e+00	0.000e+00	0.000e+00	
	0.000e+00	0.000e+00	0.000e+00	0.000e+00	0.000e+00	0.000e+00	
	0.000e+00	0.000e+00	0.000e+00	0.000e+00	0.000e+00	
	0.000e+00	0.000e+00	0.000e+00	0.000e+00	0.000e+00	0.000e+00	
	0.000e+00	0.000e+00	0.000e+00	0.000e+00	0.000e+00	
	0.000e+00	0.000e+00	0.000e+00	0.000e+00	0.000e+00	0.000e+00	
	0.000e+00	0.000e+00	0.000e+00	0.000e+00	0.000e+00	
	0.000e+00	0.000e+00	0.000e+00	0.000e+00	0.000e+00	0.000e+00	
	0.000e+00	0.000e+00	0.000e+00	0.000e+00	0.000e+00	
	0.000e+00	0.000e+00	0.000e+00	0.000e+00	0.000e+00	0.000e+00	
	0.000e+00	0.000e+00	0.000e+00	0.000e+00	0.000e+00	
	0.000e+00	0.000e+00	0.000e+00	0.000e+00	0.000e+00	0.000e+00	
	0.000e+00	0.000e+00	0.000e+00	0.000e+00	0.000e+00	
	0.000e+00	0.000e+00	0.000e+00	0.000e+00	0.000e+00	0.000e+00	
	0.000e+00	0.000e+00	0.000e+00	0.000e+00	0.000e+00	
	0.000e+00	0.000e+00	0.000e+00	0.000e+00	0.000e+00	0.000e+00	
	0.000e+00	0.000e+00	0.000e+00	0.000e+00	0.000e+00	
	0.000e+00	0.000e+00	0.000e+00	0.000e+00	0.000e+00	0.000e+00	
	0.000e+00	0.000e+00	0.000e+00	0.000e+00	0.000e+00	
	0.000e+00	0.000e+00	0.000e+00	0.000e+00	0.000e+00	0.000e+00	
	0.000e+00	0.000e+00	0.000e+00	0.000e+00	0.000e+00	
	0.000e+00	0.000e+00	0.000e+00	0.000e+00	0.000e+00	0.000e+00	
	0.000e+00	0.000e+00	0.000e+00	0.000e+00	0.000e+00	
	0.000e+00	0.000e+00	0.000e+00	0.000e+00	0.000e+00	0.000e+00	
	0.000e+00	0.000e+00	0.000e+00	0.000e+00	0.000e+00	
	0.000e+00	0.000e+00	0.000e+00	0.000e+00	0.000e+00	0.000e+00	
	0.000e+00	0.000e+00	0.000e+00	0.000e+00	0.000e+00	
	0.000e+00	0.000e+00	0.000e+00	0.000e+00	0.000e+00	0.000e+00	
	0.000e+00	0.000e+00	0.000e+00	0.000e+00	0.000e+00	
	0.000e+00	0.000e+00	0.000e+00	0.000e+00	0.000e+00	0.000e+00	
	0.000e+00	0.000e+00	0.000e+00	0.000e+00	0.000e+00	
	0.000e+00	0.000e+00	0.000e+00	0.000e+00	0.000e+00	0.000e+00	
	0.000e+00	0.000e+00	0.000e+00	0.000e+00	0.000e+00	
	0.000e+00	0.000e+00	0.000e+00	0.000e+00	0.000e+00	0.000e+00	
	0.000e+00	0.000e+00	0.000e+00	0.000e+00	0.000e+00	
	0.000e+00	0.000e+00	0.000e+00	0.000e+00	0.000e+00	0.000e+00	
	0.000e+00	0.000e+00	0.000e+00	0.000e+00	0.000e+00	
	0.000e+00	0.000e+00	0.000e+00	0.000e+00	0.000e+00	0.000e+00	
	0.000e+00	0.000e+00	0.000e+00	0.000e+00	0.000e+00	
	0.000e+00	0.000e+00	0.000e+00	0.000e+00	0.000e+00	0.000e+00	
	0.000e+00	0.000e+00	0.000e+00	0.000e+00	0.000e+00	
	0.000e+00	0.000e+00	0.000e+00	0.000e+00	0.000e+00	0.000e+00	
	0.000e+00	0.000e+00	0.000e+00	0.000e+00	0.000e+00	
	0.000e+00	0.000e+00	0.000e+00	0.000e+00	0.000e+00	0.000e+00	
	0.000e+00	0.000e+00	0.000e+00	0.000e+00	0.000e+00	
	0.000e+00	0.000e+00	0.000e+00	0.000e+00	0.000e+00	0.000e+00	
	0.000e+00	0.000e+00	0.000e+00	0.000e+00	0.000e+00	
	0.000e+00	0.000e+00	0.000e+00	0.000e+00	0.000e+00	0.000e+00	
	0.000e+00	0.000e+00	0.000e+00	0.000e+00	0.000e+00	
	0.000e+00	0.000e+00	0.000e+00	0.000e+00	0.000e+00	0.000e+00	
	0.000e+00	0.000e+00	0.000e+00	0.000e+00	0.000e+00	
	0.000e+00	0.000e+00	0.000e+00	0.000e+00	0.000e+00	0.000e+00	
	0.000e+00	0.000e+00	0.000e+00	0.000e+00	0.000e+00	
	0.000e+00	0.000e+00	0.000e+00	0.000e+00	0.000e+00	0.000e+00	
	0.000e+00	0.000e+00	0.000e+00	0.000e+00	0.000e+00	
	0.000e+00	0.000e+00	0.000e+00	0.000e+00	0.000e+00	0.000e+00	
	0.000e+00	0.000e+00	0.000e+00	0.000e+00	0.000e+00	
	0.000e+00	0.000e+00	0.000e+00	0.000e+00	0.000e+00	0.000e+00	
	0.000e+00	0.000e+00	0.000e+00	0.000e+00	0.000e+00	
	0.000e+00	0.000e+00	0.000e+00	0.000e+00	0.000e+00	0.000e+00	
	0.000e+00	0.000e+00	0.000e+00	0.000e+00	0.000e+00	
	0.000e+00	0.000e+00	0.000e+00	0.000e+00	0.000e+00	0.000e+00	
	0.000e+00	0.000e+00	0.000e+00	0.000e+00	0.000e+00	
	0.000e+00	0.000e+00	0.000e+00	0.000e+00	0.000e+00	0.000e+00	
	0.000e+00	5.221e-05	-6.841e-05	-4.415e-05	0.000e+00	
	0.000e+00	0.000e+00	0.000e+00	0.000e+00	0.000e+00	0.000e+00	
	0.000e+00	2.468e-05	-7.456e-05	-6.707e-05	0.000e+00	
	0.000e+00	0.000e+00	0.000e+00	0.000e+00	0.000e+00	0.000e+00	
	0.000e+00	5.549e-05	-1.234e-04	-1.252e-04	0.000e+00	
	-5.751e-05	8.517e-05	-4.309e-06	-6.666e-05	4.226e-05	0.000e+00	
	0.000e+00	1.114e-05	-1.824e-04	-2.084e-04	0.000e+00	
	1.534e-04	2.958e-04	-4.453e-06	3.216e-05	-1.364e-05	-1.643e-05	
	3.001e-05	1.373e-05	-2.442e-04	-2.499e-04	0.000e+00	
	4.832e-05	1.289e-04	-5.938e-05	2.008e-05	-1.557e-06	0.000e+00	
	0.000e+00	-7.102e-05	-7.218e-05	-2.282e-04	0.000e+00	
	0.000e+00	0.000e+00	0.000e+00	0.000e+00	0.000e+00	0.000e+00	
	0.000e+00	-7.168e-05	-7.863e-05	-2.061e-04	0.000e+00	
	0.000e+00	0.000e+00	0.000e+00	0.000e+00	0.000e+00	0.000e+00	
	0.000e+00	-1.331e-05	-6.550e-05	-9.267e-05	0.000e+00	
	0.000e+00	0.000e+00	0.000e+00	0.000e+00	0.000e+00	0.000e+00	
	0.000e+00	-3.939e-07	-1.491e-05	-7.524e-05	0.000e+00	
	0.000e+00	0.000e+00	0.000e+00	0.000e+00	0.000e+00	0.000e+00	
	0.000e+00	0.000e+00	0.000e+00	0.000e+00	0.000e+00	
	0.000e+00	0.000e+00	0.000e+00	0.000e+00	0.000e+00	0.000e+00	
	0.000e+00	0.000e+00	0.000e+00	0.000e+00	0.000e+00	
	0.000e+00	0.000e+00	0.000e+00	0.000e+00	0.000e+00	0.000e+00	
	0.000e+00	0.000e+00	0.000e+00	0.000e+00	-0.000e+00	
	0.000e+00	0.000e+00	0.000e+00	0.000e+00	0.000e+00	0.000e+00	
	0.000e+00	0.000e+00	0.000e+00	0.000e+00	-0.000e+00	
	0.000e+00	0.000e+00	0.000e+00	0.000e+00	0.000e+00	0.000e+00	
	0.000e+00	0.000e+00	3.084e-02	0.000e+00	-0.000e+00	
	0.000e+00	0.000e+00	0.000e+00	0.000e+00	0.000e+00	0.000e+00	
	0.000e+00	0.000e+00	4.559e-02	0.000e+00	-0.000e+00	
	0.000e+00	0.000e+00	0.000e+00	0.000e+00	0.000e+00	0.000e+00	
	0.000e+00	0.000e+00	0.000e+00	0.000e+00	-0.000e+00	
	0.000e+00	0.000e+00	0.000e+00	0.000e+00	0.000e+00	0.000e+00	
	0.000e+00	0.000e+00	1.804e-02	0.000e+00	-0.000e+00	
	0.000e+00	0.000e+00	0.000e+00	0.000e+00	0.000e+00	0.000e+00	
	0.000e+00	0.000e+00	1.966e-02	0.000e+00	-0.000e+00	
	0.000e+00	0.000e+00	0.000e+00	0.000e+00	0.000e+00	0.000e+00	
	0.000e+00	0.000e+00	0.000e+00	0.000e+00	-0.000e+00	
	0.000e+00	0.000e+00	0.000e+00	0.000e+00	0.000e+00	0.000e+00	
	0.000e+00	0.000e+00	0.000e+00	0.000e+00	-0.000e+00	
	0.000e+00	0.000e+00	0.000e+00	0.000e+00	0.000e+00	0.000e+00	
	0.000e+00	0.000e+00	0.000e+00	0.000e+00	0.000e+00	
	0.000e+00	0.000e+00	0.000e+00	0.000e+00	0.000e+00	0.000e+00	
	0.000e+00	0.000e+00	0.000e+00	0.000e+00	0.000e+00	
	0.000e+00	0.000e+00	0.000e+00	0.000e+00	0.000e+00	0.000e+00	
	0.000e+00	-6.170e-03	1.864e-02	1.677e-02	0.000e+00	
	0.000e+00	0.000e+00	0.000e+00	0.000e+00	0.000e+00	0.000e+00	
	0.000e+00	-1.540e-02	1.374e-02	2.027e-02	0.000e+00	
	0.000e+00	0.000e+00	0.000e+00	0.000e+00	0.000e+00	0.000e+00	
	0.000e+00	3.385e-03	2.695e-02	3.534e-02	0.000e+00	
	-3.834e-02	-7.395e-02	1.113e-03	-8.040e-03	3.410e-03	8.217e-03	
	-1.500e-02	1.044e-02	3.092e-02	2.073e-02	0.000e+00	
	-2.646e-02	-1.094e-02	1.377e-02	-2.168e-02	1.095e-02	0.000e+00	
	0.000e+00	2.054e-02	-2.755e-02	4.935e-03	0.000e+00	
	3.834e-02	7.395e-02	-1.113e-03	8.040e-03	-3.410e-03	-8.217e-03	
	1.500e-02	2.135e-02	-8.601e-02	-1.086e-02	0.000e+00	
	-0.000e+00	-0.000e+00	-0.000e+00	-0.000e+00	-0.000e+00	0.000e+00	
	0.000e+00	-1.443e-02	-1.668e-03	-3.388e-02	0.000e+00	
	0.000e+00	0.000e+00	0.000e+00	0.000e+00	0.000e+00	0.000e+00	
	0.000e+00	-2.919e-02	-1.593e-02	-3.273e-02	0.000e+00	
	0.000e+00	0.000e+00	0.000e+00	0.000e+00	0.000e+00	0.000e+00	
	0.000e+00	-3.327e-03	-1.638e-02	-2.317e-02	0.000e+00	
	0.000e+00	0.000e+00	0.000e+00	0.000e+00	0.000e+00	0.000e+00	
	0.000e+00	-0.000e+00	-0.000e+00	-0.000e+00	0.000e+00	
GEOMETRY
F=POINT
CS=GRID
X=0.00,Y=0.00,Z=0.00
C=BLACK
S=GLOBAL
L=SOLID
PL=4
LT=0.1
CLIPPING=CLIPTOVIEWPORT
DRAWORDER=AFTERDATA
MFC=""
T=RECTANGLE 0.04 0.02
GEOMETRY
F=POINT
CS=GRID
X=0,Y=0.014,Z=0.00
C=BLACK
S=GLOBAL
L=SOLID
PL=4
LT=0.1
CLIPPING=CLIPTOVIEWPORT
DRAWORDER=AFTERDATA
MFC=""
T=RECTANGLE 0.024 0.006
GEOMETRY
F=POINT
CS=GRID
X=0.02,Y=0.012,Z=0.00
C=BLACK
S=GLOBAL
L=SOLID
PL=4
LT=0.1
CLIPPING=CLIPTOVIEWPORT
DRAWORDER=AFTERDATA
MFC=""
T=RECTANGLE 0.004 0.002
GEOMETRY
F=POINT
CS=GRID
X=0,Y=0,Z=0.00
C=BLACK
S=GLOBAL
L=SOLID
PL=4
LT=0.1
CLIPPING=CLIPTOVIEWPORT
DRAWORDER=AFTERDATA
MFC=""
T=RECTANGLE 0.024 0.006
GEOMETRY
F=POINT
CS=GRID
X=0.02,Y=0.006,Z=0.00
C=BLACK
S=GLOBAL
L=SOLID
PL=4
LT=0.1
CLIPPING=CLIPTOVIEWPORT
DRAWORDER=AFTERDATA
MFC=""
T=RECTANGLE 0.004 0.002
GEOMETRY
F=POINT
CS=GRID
X=0.024,Y=0,Z=0.00
C=BLACK
S=GLOBAL
L=SOLID
PL=4
LT=0.1
CLIPPING=CLIPTOVIEWPORT
DRAWORDER=AFTERDATA
MFC=""
T=RECTANGLE 0.016 0.004
GEOMETRY
F=POINT
CS=GRID
X=0.032,Y=0.004,Z=0.00
C=BLACK
S=GLOBAL
L=SOLID
PL=4
LT=0.1
CLIPPING=CLIPTOVIEWPORT
DRAWORDER=AFTERDATA
MFC=""
T=RECTANGLE 0.008 0.004
GEOMETRY
F=POINT
CS=GRID
X=0.024,Y=0.016,Z=0.00
C=BLACK
S=GLOBAL
L=SOLID
PL=4
LT=0.1
CLIPPING=CLIPTOVIEWPORT
DRAWORDER=AFTERDATA
MFC=""
T=RECTANGLE 0.016 0.004
GEOMETRY
F=POINT
CS=GRID
X=0.032,Y=0.012,Z=0.00
C=BLACK
S=GLOBAL
L=SOLID
PL=4
LT=0.1
CLIPPING=CLIPTOVIEWPORT
DRAWORDER=AFTERDATA
MFC=""
T=RECTANGLE 0.008 0.004
