TITLE = "2D-PIC Gsize data set"
VARIABLES = "X","Y",
"Boundary",
"CondID",
"Temp",
"BackDen1",
"face",
"area",
ZONE I = 11, J = 11, F=BLOCK,
	0.000e+00	4.000e-03	8.000e-03	1.200e-02	1.600e-02	2.000e-02	
	2.400e-02	2.800e-02	3.200e-02	3.600e-02	4.000e-02	
	0.000e+00	4.000e-03	8.000e-03	1.200e-02	1.600e-02	2.000e-02	
	2.400e-02	2.800e-02	3.200e-02	3.600e-02	4.000e-02	
	0.000e+00	4.000e-03	8.000e-03	1.200e-02	1.600e-02	2.000e-02	
	2.400e-02	2.800e-02	3.200e-02	3.600e-02	4.000e-02	
	0.000e+00	4.000e-03	8.000e-03	1.200e-02	1.600e-02	2.000e-02	
	2.400e-02	2.800e-02	3.200e-02	3.600e-02	4.000e-02	
	0.000e+00	4.000e-03	8.000e-03	1.200e-02	1.600e-02	2.000e-02	
	2.400e-02	2.800e-02	3.200e-02	3.600e-02	4.000e-02	
	0.000e+00	4.000e-03	8.000e-03	1.200e-02	1.600e-02	2.000e-02	
	2.400e-02	2.800e-02	3.200e-02	3.600e-02	4.000e-02	
	0.000e+00	4.000e-03	8.000e-03	1.200e-02	1.600e-02	2.000e-02	
	2.400e-02	2.800e-02	3.200e-02	3.600e-02	4.000e-02	
	0.000e+00	4.000e-03	8.000e-03	1.200e-02	1.600e-02	2.000e-02	
	2.400e-02	2.800e-02	3.200e-02	3.600e-02	4.000e-02	
	0.000e+00	4.000e-03	8.000e-03	1.200e-02	1.600e-02	2.000e-02	
	2.400e-02	2.800e-02	3.200e-02	3.600e-02	4.000e-02	
	0.000e+00	4.000e-03	8.000e-03	1.200e-02	1.600e-02	2.000e-02	
	2.400e-02	2.800e-02	3.200e-02	3.600e-02	4.000e-02	
	0.000e+00	4.000e-03	8.000e-03	1.200e-02	1.600e-02	2.000e-02	
	2.400e-02	2.800e-02	3.200e-02	3.600e-02	4.000e-02	
	0.000e+00	0.000e+00	0.000e+00	0.000e+00	0.000e+00	0.000e+00	
	0.000e+00	0.000e+00	0.000e+00	0.000e+00	0.000e+00	
	2.000e-03	2.000e-03	2.000e-03	2.000e-03	2.000e-03	2.000e-03	
	2.000e-03	2.000e-03	2.000e-03	2.000e-03	2.000e-03	
	4.000e-03	4.000e-03	4.000e-03	4.000e-03	4.000e-03	4.000e-03	
	4.000e-03	4.000e-03	4.000e-03	4.000e-03	4.000e-03	
	6.000e-03	6.000e-03	6.000e-03	6.000e-03	6.000e-03	6.000e-03	
	6.000e-03	6.000e-03	6.000e-03	6.000e-03	6.000e-03	
	8.000e-03	8.000e-03	8.000e-03	8.000e-03	8.000e-03	8.000e-03	
	8.000e-03	8.000e-03	8.000e-03	8.000e-03	8.000e-03	
	1.000e-02	1.000e-02	1.000e-02	1.000e-02	1.000e-02	1.000e-02	
	1.000e-02	1.000e-02	1.000e-02	1.000e-02	1.000e-02	
	1.200e-02	1.200e-02	1.200e-02	1.200e-02	1.200e-02	1.200e-02	
	1.200e-02	1.200e-02	1.200e-02	1.200e-02	1.200e-02	
	1.400e-02	1.400e-02	1.400e-02	1.400e-02	1.400e-02	1.400e-02	
	1.400e-02	1.400e-02	1.400e-02	1.400e-02	1.400e-02	
	1.600e-02	1.600e-02	1.600e-02	1.600e-02	1.600e-02	1.600e-02	
	1.600e-02	1.600e-02	1.600e-02	1.600e-02	1.600e-02	
	1.800e-02	1.800e-02	1.800e-02	1.800e-02	1.800e-02	1.800e-02	
	1.800e-02	1.800e-02	1.800e-02	1.800e-02	1.800e-02	
	2.000e-02	2.000e-02	2.000e-02	2.000e-02	2.000e-02	2.000e-02	
	2.000e-02	2.000e-02	2.000e-02	2.000e-02	2.000e-02	
	1	1	1	1	1	1	
	1	1	1	1	1	
	2	3	3	3	3	3	
	3	4	4	4	1	
	2	3	3	3	3	3	
	3	4	4	4	1	
	2	3	3	3	3	3	
	3	0	4	4	1	
	2	0	0	0	0	3	
	3	0	4	4	1	
	2	0	0	0	0	0	
	0	0	0	0	1	
	2	0	0	0	0	3	
	3	0	4	4	1	
	2	3	3	3	3	3	
	3	0	4	4	1	
	2	3	3	3	3	3	
	3	4	4	4	1	
	2	3	3	3	3	3	
	3	4	4	4	1	
	1	1	1	1	1	1	
	1	1	1	1	1	
	2	2	2	2	2	2	
	2	0	0	0	0	
	2	2	2	2	2	2	
	2	0	0	0	0	
	2	2	2	2	2	2	
	2	0	0	0	0	
	2	2	2	2	2	2	
	2	0	0	0	0	
	0	0	0	0	0	2	
	2	0	0	0	0	
	0	0	0	0	0	0	
	0	0	0	0	0	
	0	0	0	0	0	1	
	1	0	0	0	0	
	1	1	1	1	1	1	
	1	0	0	0	0	
	1	1	1	1	1	1	
	1	0	0	0	0	
	1	1	1	1	1	1	
	1	0	0	0	0	
	1	1	1	1	1	1	
	1	0	0	0	0	
	4.730e+02	4.730e+02	4.730e+02	4.730e+02	4.730e+02	4.730e+02	
	4.730e+02	4.730e+02	4.730e+02	4.730e+02	4.730e+02	
	4.730e+02	8.730e+02	8.730e+02	8.730e+02	8.730e+02	8.730e+02	
	8.730e+02	0.000e+00	0.000e+00	0.000e+00	4.730e+02	
	4.730e+02	8.730e+02	8.730e+02	8.730e+02	8.730e+02	8.730e+02	
	8.730e+02	0.000e+00	0.000e+00	0.000e+00	4.730e+02	
	4.730e+02	8.730e+02	8.730e+02	8.730e+02	8.730e+02	8.730e+02	
	8.730e+02	0.000e+00	0.000e+00	0.000e+00	4.730e+02	
	4.730e+02	0.000e+00	0.000e+00	0.000e+00	0.000e+00	8.730e+02	
	8.730e+02	0.000e+00	0.000e+00	0.000e+00	4.730e+02	
	4.730e+02	0.000e+00	0.000e+00	0.000e+00	0.000e+00	0.000e+00	
	0.000e+00	0.000e+00	0.000e+00	0.000e+00	4.730e+02	
	4.730e+02	0.000e+00	0.000e+00	0.000e+00	0.000e+00	4.730e+02	
	4.730e+02	0.000e+00	0.000e+00	0.000e+00	4.730e+02	
	4.730e+02	4.730e+02	4.730e+02	4.730e+02	4.730e+02	4.730e+02	
	4.730e+02	0.000e+00	0.000e+00	0.000e+00	4.730e+02	
	4.730e+02	4.730e+02	4.730e+02	4.730e+02	4.730e+02	4.730e+02	
	4.730e+02	0.000e+00	0.000e+00	0.000e+00	4.730e+02	
	4.730e+02	4.730e+02	4.730e+02	4.730e+02	4.730e+02	4.730e+02	
	4.730e+02	0.000e+00	0.000e+00	0.000e+00	4.730e+02	
	4.730e+02	4.730e+02	4.730e+02	4.730e+02	4.730e+02	4.730e+02	
	4.730e+02	4.730e+02	4.730e+02	4.730e+02	4.730e+02	
	0.000e+00	0.000e+00	0.000e+00	0.000e+00	0.000e+00	0.000e+00	
	0.000e+00	0.000e+00	0.000e+00	0.000e+00	0.000e+00	
	0.000e+00	0.000e+00	0.000e+00	0.000e+00	0.000e+00	0.000e+00	
	0.000e+00	0.000e+00	0.000e+00	0.000e+00	0.000e+00	
	0.000e+00	0.000e+00	0.000e+00	0.000e+00	0.000e+00	0.000e+00	
	0.000e+00	0.000e+00	0.000e+00	0.000e+00	0.000e+00	
	0.000e+00	0.000e+00	0.000e+00	0.000e+00	0.000e+00	0.000e+00	
	0.000e+00	0.000e+00	0.000e+00	0.000e+00	0.000e+00	
	0.000e+00	0.000e+00	0.000e+00	0.000e+00	0.000e+00	0.000e+00	
	0.000e+00	0.000e+00	0.000e+00	0.000e+00	0.000e+00	
	0.000e+00	0.000e+00	0.000e+00	0.000e+00	0.000e+00	0.000e+00	
	0.000e+00	0.000e+00	0.000e+00	0.000e+00	0.000e+00	
	0.000e+00	0.000e+00	0.000e+00	0.000e+00	0.000e+00	0.000e+00	
	0.000e+00	0.000e+00	0.000e+00	0.000e+00	0.000e+00	
	0.000e+00	0.000e+00	0.000e+00	0.000e+00	0.000e+00	0.000e+00	
	0.000e+00	0.000e+00	0.000e+00	0.000e+00	0.000e+00	
	0.000e+00	0.000e+00	0.000e+00	0.000e+00	0.000e+00	0.000e+00	
	0.000e+00	0.000e+00	0.000e+00	0.000e+00	0.000e+00	
	0.000e+00	0.000e+00	0.000e+00	0.000e+00	0.000e+00	0.000e+00	
	0.000e+00	0.000e+00	0.000e+00	0.000e+00	0.000e+00	
	0.000e+00	0.000e+00	0.000e+00	0.000e+00	0.000e+00	0.000e+00	
	0.000e+00	0.000e+00	0.000e+00	0.000e+00	0.000e+00	
	8	8	8	8	8	8	
	1	2	2	2	4	
	8	8	8	8	8	8	
	1	8	8	8	0	
	8	8	8	8	8	8	
	1	2	8	8	0	
	2	2	2	2	2	8	
	1	8	0	8	0	
	8	8	8	8	8	4	
	5	8	4	2	0	
	8	8	8	8	8	8	
	8	8	8	8	0	
	8	8	8	8	8	6	
	7	8	6	3	0	
	3	3	3	3	3	8	
	1	8	0	8	0	
	8	8	8	8	8	8	
	1	3	8	8	0	
	8	8	8	8	8	8	
	1	8	8	8	0	
	8	8	8	8	8	8	
	1	3	3	3	6	
	2.000e-03	2.000e-03	2.000e-03	2.000e-03	2.000e-03	2.000e-03	
	2.000e-03	4.000e-03	4.000e-03	4.000e-03	3.000e-03	
	2.000e-03	2.000e-03	2.000e-03	2.000e-03	2.000e-03	2.000e-03	
	2.000e-03	2.000e-03	2.000e-03	2.000e-03	2.000e-03	
	2.000e-03	2.000e-03	2.000e-03	2.000e-03	2.000e-03	2.000e-03	
	2.000e-03	4.000e-03	2.000e-03	2.000e-03	2.000e-03	
	4.000e-03	4.000e-03	4.000e-03	4.000e-03	4.000e-03	2.000e-03	
	2.000e-03	2.000e-03	2.000e-03	2.000e-03	2.000e-03	
	2.000e-03	2.000e-03	2.000e-03	2.000e-03	2.000e-03	3.000e-03	
	3.000e-03	2.000e-03	3.000e-03	4.000e-03	2.000e-03	
	2.000e-03	2.000e-03	2.000e-03	2.000e-03	2.000e-03	2.000e-03	
	2.000e-03	2.000e-03	2.000e-03	2.000e-03	2.000e-03	
	2.000e-03	2.000e-03	2.000e-03	2.000e-03	2.000e-03	3.000e-03	
	3.000e-03	2.000e-03	3.000e-03	4.000e-03	2.000e-03	
	4.000e-03	4.000e-03	4.000e-03	4.000e-03	4.000e-03	2.000e-03	
	2.000e-03	2.000e-03	2.000e-03	2.000e-03	2.000e-03	
	2.000e-03	2.000e-03	2.000e-03	2.000e-03	2.000e-03	2.000e-03	
	2.000e-03	4.000e-03	2.000e-03	2.000e-03	2.000e-03	
	2.000e-03	2.000e-03	2.000e-03	2.000e-03	2.000e-03	2.000e-03	
	2.000e-03	2.000e-03	2.000e-03	2.000e-03	2.000e-03	
	2.000e-03	2.000e-03	2.000e-03	2.000e-03	2.000e-03	2.000e-03	
	2.000e-03	4.000e-03	4.000e-03	4.000e-03	3.000e-03	
GEOMETRY
F=POINT
CS=GRID
X=0.00,Y=0.00,Z=0.00
C=BLACK
S=GLOBAL
L=SOLID
PL=4
LT=0.1
CLIPPING=CLIPTOVIEWPORT
DRAWORDER=AFTERDATA
MFC=""
T=RECTANGLE 0.04 0.02
GEOMETRY
F=POINT
CS=GRID
X=0,Y=0.014,Z=0.00
C=BLACK
S=GLOBAL
L=SOLID
PL=4
LT=0.1
CLIPPING=CLIPTOVIEWPORT
DRAWORDER=AFTERDATA
MFC=""
T=RECTANGLE 0.024 0.006
GEOMETRY
F=POINT
CS=GRID
X=0.02,Y=0.012,Z=0.00
C=BLACK
S=GLOBAL
L=SOLID
PL=4
LT=0.1
CLIPPING=CLIPTOVIEWPORT
DRAWORDER=AFTERDATA
MFC=""
T=RECTANGLE 0.004 0.002
GEOMETRY
F=POINT
CS=GRID
X=0,Y=0,Z=0.00
C=BLACK
S=GLOBAL
L=SOLID
PL=4
LT=0.1
CLIPPING=CLIPTOVIEWPORT
DRAWORDER=AFTERDATA
MFC=""
T=RECTANGLE 0.024 0.006
GEOMETRY
F=POINT
CS=GRID
X=0.02,Y=0.006,Z=0.00
C=BLACK
S=GLOBAL
L=SOLID
PL=4
LT=0.1
CLIPPING=CLIPTOVIEWPORT
DRAWORDER=AFTERDATA
MFC=""
T=RECTANGLE 0.004 0.002
GEOMETRY
F=POINT
CS=GRID
X=0.024,Y=0,Z=0.00
C=BLACK
S=GLOBAL
L=SOLID
PL=4
LT=0.1
CLIPPING=CLIPTOVIEWPORT
DRAWORDER=AFTERDATA
MFC=""
T=RECTANGLE 0.016 0.004
GEOMETRY
F=POINT
CS=GRID
X=0.032,Y=0.004,Z=0.00
C=BLACK
S=GLOBAL
L=SOLID
PL=4
LT=0.1
CLIPPING=CLIPTOVIEWPORT
DRAWORDER=AFTERDATA
MFC=""
T=RECTANGLE 0.008 0.004
GEOMETRY
F=POINT
CS=GRID
X=0.024,Y=0.016,Z=0.00
C=BLACK
S=GLOBAL
L=SOLID
PL=4
LT=0.1
CLIPPING=CLIPTOVIEWPORT
DRAWORDER=AFTERDATA
MFC=""
T=RECTANGLE 0.016 0.004
GEOMETRY
F=POINT
CS=GRID
X=0.032,Y=0.012,Z=0.00
C=BLACK
S=GLOBAL
L=SOLID
PL=4
LT=0.1
CLIPPING=CLIPTOVIEWPORT
DRAWORDER=AFTERDATA
MFC=""
T=RECTANGLE 0.008 0.004
