TITLE = "2D-PIC CPU PCG SOLUTION"
VARIABLES = "X","Y",
"Cond 0_Solution",
"Cond 1_Solution",
ZONE I = 11, J = 11, F=BLOCK,
	0.000e+00	4.000e-03	8.000e-03	1.200e-02	1.600e-02	2.000e-02	
	2.400e-02	2.800e-02	3.200e-02	3.600e-02	4.000e-02	
	0.000e+00	4.000e-03	8.000e-03	1.200e-02	1.600e-02	2.000e-02	
	2.400e-02	2.800e-02	3.200e-02	3.600e-02	4.000e-02	
	0.000e+00	4.000e-03	8.000e-03	1.200e-02	1.600e-02	2.000e-02	
	2.400e-02	2.800e-02	3.200e-02	3.600e-02	4.000e-02	
	0.000e+00	4.000e-03	8.000e-03	1.200e-02	1.600e-02	2.000e-02	
	2.400e-02	2.800e-02	3.200e-02	3.600e-02	4.000e-02	
	0.000e+00	4.000e-03	8.000e-03	1.200e-02	1.600e-02	2.000e-02	
	2.400e-02	2.800e-02	3.200e-02	3.600e-02	4.000e-02	
	0.000e+00	4.000e-03	8.000e-03	1.200e-02	1.600e-02	2.000e-02	
	2.400e-02	2.800e-02	3.200e-02	3.600e-02	4.000e-02	
	0.000e+00	4.000e-03	8.000e-03	1.200e-02	1.600e-02	2.000e-02	
	2.400e-02	2.800e-02	3.200e-02	3.600e-02	4.000e-02	
	0.000e+00	4.000e-03	8.000e-03	1.200e-02	1.600e-02	2.000e-02	
	2.400e-02	2.800e-02	3.200e-02	3.600e-02	4.000e-02	
	0.000e+00	4.000e-03	8.000e-03	1.200e-02	1.600e-02	2.000e-02	
	2.400e-02	2.800e-02	3.200e-02	3.600e-02	4.000e-02	
	0.000e+00	4.000e-03	8.000e-03	1.200e-02	1.600e-02	2.000e-02	
	2.400e-02	2.800e-02	3.200e-02	3.600e-02	4.000e-02	
	0.000e+00	4.000e-03	8.000e-03	1.200e-02	1.600e-02	2.000e-02	
	2.400e-02	2.800e-02	3.200e-02	3.600e-02	4.000e-02	
	0.000e+00	0.000e+00	0.000e+00	0.000e+00	0.000e+00	0.000e+00	
	0.000e+00	0.000e+00	0.000e+00	0.000e+00	0.000e+00	
	2.000e-03	2.000e-03	2.000e-03	2.000e-03	2.000e-03	2.000e-03	
	2.000e-03	2.000e-03	2.000e-03	2.000e-03	2.000e-03	
	4.000e-03	4.000e-03	4.000e-03	4.000e-03	4.000e-03	4.000e-03	
	4.000e-03	4.000e-03	4.000e-03	4.000e-03	4.000e-03	
	6.000e-03	6.000e-03	6.000e-03	6.000e-03	6.000e-03	6.000e-03	
	6.000e-03	6.000e-03	6.000e-03	6.000e-03	6.000e-03	
	8.000e-03	8.000e-03	8.000e-03	8.000e-03	8.000e-03	8.000e-03	
	8.000e-03	8.000e-03	8.000e-03	8.000e-03	8.000e-03	
	1.000e-02	1.000e-02	1.000e-02	1.000e-02	1.000e-02	1.000e-02	
	1.000e-02	1.000e-02	1.000e-02	1.000e-02	1.000e-02	
	1.200e-02	1.200e-02	1.200e-02	1.200e-02	1.200e-02	1.200e-02	
	1.200e-02	1.200e-02	1.200e-02	1.200e-02	1.200e-02	
	1.400e-02	1.400e-02	1.400e-02	1.400e-02	1.400e-02	1.400e-02	
	1.400e-02	1.400e-02	1.400e-02	1.400e-02	1.400e-02	
	1.600e-02	1.600e-02	1.600e-02	1.600e-02	1.600e-02	1.600e-02	
	1.600e-02	1.600e-02	1.600e-02	1.600e-02	1.600e-02	
	1.800e-02	1.800e-02	1.800e-02	1.800e-02	1.800e-02	1.800e-02	
	1.800e-02	1.800e-02	1.800e-02	1.800e-02	1.800e-02	
	2.000e-02	2.000e-02	2.000e-02	2.000e-02	2.000e-02	2.000e-02	
	2.000e-02	2.000e-02	2.000e-02	2.000e-02	2.000e-02	
	2.17285e+19	2.17285e+19	2.17285e+19	2.17285e+19	2.17285e+19	2.17285e+19	
	2.17285e+19	2.17285e+19	2.17285e+19	2.17285e+19	2.17285e+19	
	1.17727e+19	1.17727e+19	1.17727e+19	1.17727e+19	1.17727e+19	1.17727e+19	
	1.17727e+19	1.82477e+19	2.0788e+19	2.14457e+19	2.17285e+19	
	1.17727e+19	1.17727e+19	1.17727e+19	1.17727e+19	1.17727e+19	1.17727e+19	
	1.17727e+19	1.73253e+19	2.04578e+19	2.1268e+19	2.17285e+19	
	1.17727e+19	1.17727e+19	1.17727e+19	1.17727e+19	1.17727e+19	1.17727e+19	
	1.17727e+19	1.65622e+19	2.04583e+19	2.119e+19	2.17285e+19	
	1.32957e+19	1.32955e+19	1.3294e+19	1.32785e+19	1.31253e+19	1.17727e+19	
	1.17727e+19	1.67305e+19	2.04123e+19	2.11704e+19	2.17285e+19	
	1.52713e+19	1.52713e+19	1.52714e+19	1.5272e+19	1.52749e+19	1.5295e+19	
	1.55085e+19	1.79966e+19	2.05068e+19	2.12878e+19	2.17285e+19	
	1.79365e+19	1.79368e+19	1.79398e+19	1.79691e+19	1.82605e+19	2.17285e+19	
	2.17285e+19	1.96723e+19	2.11483e+19	2.15026e+19	2.17285e+19	
	2.17285e+19	2.17285e+19	2.17285e+19	2.17285e+19	2.17285e+19	2.17285e+19	
	2.17285e+19	2.07516e+19	2.13657e+19	2.15589e+19	2.17285e+19	
	2.17285e+19	2.17285e+19	2.17285e+19	2.17285e+19	2.17285e+19	2.17285e+19	
	2.17285e+19	2.15362e+19	2.15501e+19	2.16221e+19	2.17285e+19	
	2.17285e+19	2.17285e+19	2.17285e+19	2.17285e+19	2.17285e+19	2.17285e+19	
	2.17285e+19	2.16427e+19	2.16431e+19	2.16773e+19	2.17285e+19	
	2.17285e+19	2.17285e+19	2.17285e+19	2.17285e+19	2.17285e+19	2.17285e+19	
	2.17285e+19	2.17285e+19	2.17285e+19	2.17285e+19	2.17285e+19	
	313.681	313.681	313.681	313.681	313.681	313.681	
	313.681	313.681	313.681	313.681	313.681	
	426.152	426.152	426.152	426.152	426.152	426.152	
	426.152	342.293	320.698	315.742	313.681	
	426.152	426.152	426.152	426.152	426.152	426.152	
	426.152	351.288	323.276	317.058	313.681	
	426.152	426.152	426.152	426.152	426.152	426.152	
	426.152	359.288	323.272	317.642	313.681	
	401.003	401.005	401.028	401.262	403.598	426.152	
	426.152	357.477	323.636	317.788	313.681	
	374.167	374.166	374.165	374.158	374.122	373.876	
	371.294	344.673	322.889	316.911	313.681	
	345.25	345.248	345.218	344.937	342.174	313.681	
	313.681	329.667	317.955	315.324	313.681	
	313.681	313.681	313.681	313.681	313.681	313.681	
	313.681	320.98	316.333	314.913	313.681	
	313.681	313.681	313.681	313.681	313.681	313.681	
	313.681	315.078	314.976	314.452	313.681	
	313.681	313.681	313.681	313.681	313.681	313.681	
	313.681	314.302	314.299	314.051	313.681	
	313.681	313.681	313.681	313.681	313.681	313.681	
	313.681	313.681	313.681	313.681	313.681	
GEOMETRY
F=POINT
CS=GRID
X=0.00,Y=0.00,Z=0.00
C=BLACK
S=GLOBAL
L=SOLID
PL=4
LT=0.1
CLIPPING=CLIPTOVIEWPORT
DRAWORDER=AFTERDATA
MFC=""
T=RECTANGLE 0.04 0.02
GEOMETRY
F=POINT
CS=GRID
X=0,Y=0.014,Z=0.00
C=BLACK
S=GLOBAL
L=SOLID
PL=4
LT=0.1
CLIPPING=CLIPTOVIEWPORT
DRAWORDER=AFTERDATA
MFC=""
T=RECTANGLE 0.024 0.006
GEOMETRY
F=POINT
CS=GRID
X=0.02,Y=0.012,Z=0.00
C=BLACK
S=GLOBAL
L=SOLID
PL=4
LT=0.1
CLIPPING=CLIPTOVIEWPORT
DRAWORDER=AFTERDATA
MFC=""
T=RECTANGLE 0.004 0.002
GEOMETRY
F=POINT
CS=GRID
X=0,Y=0,Z=0.00
C=BLACK
S=GLOBAL
L=SOLID
PL=4
LT=0.1
CLIPPING=CLIPTOVIEWPORT
DRAWORDER=AFTERDATA
MFC=""
T=RECTANGLE 0.024 0.006
GEOMETRY
F=POINT
CS=GRID
X=0.02,Y=0.006,Z=0.00
C=BLACK
S=GLOBAL
L=SOLID
PL=4
LT=0.1
CLIPPING=CLIPTOVIEWPORT
DRAWORDER=AFTERDATA
MFC=""
T=RECTANGLE 0.004 0.002
GEOMETRY
F=POINT
CS=GRID
X=0.024,Y=0,Z=0.00
C=BLACK
S=GLOBAL
L=SOLID
PL=4
LT=0.1
CLIPPING=CLIPTOVIEWPORT
DRAWORDER=AFTERDATA
MFC=""
T=RECTANGLE 0.016 0.004
GEOMETRY
F=POINT
CS=GRID
X=0.032,Y=0.004,Z=0.00
C=BLACK
S=GLOBAL
L=SOLID
PL=4
LT=0.1
CLIPPING=CLIPTOVIEWPORT
DRAWORDER=AFTERDATA
MFC=""
T=RECTANGLE 0.008 0.004
GEOMETRY
F=POINT
CS=GRID
X=0.024,Y=0.016,Z=0.00
C=BLACK
S=GLOBAL
L=SOLID
PL=4
LT=0.1
CLIPPING=CLIPTOVIEWPORT
DRAWORDER=AFTERDATA
MFC=""
T=RECTANGLE 0.016 0.004
GEOMETRY
F=POINT
CS=GRID
X=0.032,Y=0.012,Z=0.00
C=BLACK
S=GLOBAL
L=SOLID
PL=4
LT=0.1
CLIPPING=CLIPTOVIEWPORT
DRAWORDER=AFTERDATA
MFC=""
T=RECTANGLE 0.008 0.004
